           4
 Particles at time step:           1
           1   0.0000000000000000        0.0000000000000000        0.0000000000000000     
           2   0.0000000000000000       0.72298984681177370       0.72298984681177370     
           3  0.72298984681177370        0.0000000000000000       0.72298984681177370     
           4  0.72298984681177370       0.72298984681177370        0.0000000000000000     
           4
 Particles at time step:           1
           1   0.0000000000000000        0.0000000000000000        0.0000000000000000     
           2   0.0000000000000000       0.72298984681177370       0.72298984681177370     
           3  0.72298984681177370        0.0000000000000000       0.72298984681177370     
           4  0.72298984681177370       0.72298984681177370        0.0000000000000000     
           4
 Particles at time step:           2
           1   3.4884371807157079E-004   3.4884371807157079E-004   3.4884371807157079E-004
           2   3.4884371807157079E-004  0.72264100309370205       0.72264100309370205     
           3  0.72264100309370205        3.4884371807157079E-004  0.72264100309370205     
           4  0.72264100309370205       0.72264100309370205        3.4884371807157079E-004
           4
 Particles at time step:           3
           1   3.4171881822448418E-004   3.4171881822448418E-004   3.4171881822448418E-004
           2   3.4171881822448418E-004  0.72264812799354916       0.72264812799354916     
           3  0.72264812799354916        3.4171881822448418E-004  0.72264812799354916     
           4  0.72264812799354916       0.72264812799354916        3.4171881822448418E-004
           4
 Particles at time step:           4
           1  -2.1228029286093252E-005  -2.1228029286093252E-005  -2.1228029286093252E-005
           2  -2.1228029286093252E-005  0.72301107484105975       0.72301107484105975     
           3  0.72301107484105975       -2.1228029286093252E-005  0.72301107484105975     
           4  0.72301107484105975       0.72301107484105975       -2.1228029286093252E-005
           4
 Particles at time step:           5
           1  -3.4900856536515551E-005  -3.4900856536515551E-005  -3.4900856536515551E-005
           2  -3.4900856536515551E-005  0.72302474766831015       0.72302474766831015     
           3  0.72302474766831015       -3.4900856536515551E-005  0.72302474766831015     
           4  0.72302474766831015       0.72302474766831015       -3.4900856536515551E-005
           4
 Particles at time step:           6
           1   3.0097771419549302E-004   3.0097771419549302E-004   3.0097771419549302E-004
           2   3.0097771419549302E-004  0.72268886909757812       0.72268886909757812     
           3  0.72268886909757812        3.0097771419549302E-004  0.72268886909757812     
           4  0.72268886909757812       0.72268886909757812        3.0097771419549302E-004
           4
 Particles at time step:           7
           1   2.8187209244207712E-004   2.8187209244207712E-004   2.8187209244207712E-004
           2   2.8187209244207712E-004  0.72270797471933157       0.72270797471933157     
           3  0.72270797471933157        2.8187209244207712E-004  0.72270797471933157     
           4  0.72270797471933157       0.72270797471933157        2.8187209244207712E-004
           4
 Particles at time step:           8
           1  -9.1825396308409886E-005  -9.1825396308409886E-005  -9.1825396308409886E-005
           2  -9.1825396308409886E-005  0.72308167220808206       0.72308167220808206     
           3  0.72308167220808206       -9.1825396308409886E-005  0.72308167220808206     
           4  0.72308167220808206       0.72308167220808206       -9.1825396308409886E-005
           4
 Particles at time step:           9
           1  -1.1481479008330306E-004  -1.1481479008330306E-004  -1.1481479008330306E-004
           2  -1.1481479008330306E-004  0.72310466160185694       0.72310466160185694     
           3  0.72310466160185694       -1.1481479008330306E-004  0.72310466160185694     
           4  0.72310466160185694       0.72310466160185694       -1.1481479008330306E-004
           4
 Particles at time step:          10
           1   2.1337191282761833E-004   2.1337191282761833E-004   2.1337191282761833E-004
           2   2.1337191282761833E-004  0.72277647489894603       0.72277647489894603     
           3  0.72277647489894603        2.1337191282761833E-004  0.72277647489894603     
           4  0.72277647489894603       0.72277647489894603        2.1337191282761833E-004
           4
 Particles at time step:          11
           1   1.8837053327231911E-004   1.8837053327231911E-004   1.8837053327231911E-004
           2   1.8837053327231911E-004  0.72280147627850133       0.72280147627850133     
           3  0.72280147627850133        1.8837053327231911E-004  0.72280147627850133     
           4  0.72280147627850133       0.72280147627850133        1.8837053327231911E-004
           4
 Particles at time step:          12
           1  -1.8930767471967081E-004  -1.8930767471967081E-004  -1.8930767471967081E-004
           2  -1.8930767471967081E-004  0.72317915448649339       0.72317915448649339     
           3  0.72317915448649339       -1.8930767471967081E-004  0.72317915448649339     
           4  0.72317915448649339       0.72317915448649339       -1.8930767471967081E-004
           4
 Particles at time step:          13
           1  -2.1428990126491141E-004  -2.1428990126491141E-004  -2.1428990126491141E-004
           2  -2.1428990126491141E-004  0.72320413671303863       0.72320413671303863     
           3  0.72320413671303863       -2.1428990126491141E-004  0.72320413671303863     
           4  0.72320413671303863       0.72320413671303863       -2.1428990126491141E-004
           4
 Particles at time step:          14
           1   1.1393473784725530E-004   1.1393473784725530E-004   1.1393473784725530E-004
           2   1.1393473784725530E-004  0.72287591207392654       0.72287591207392654     
           3  0.72287591207392654        1.1393473784725530E-004  0.72287591207392654     
           4  0.72287591207392654       0.72287591207392654        1.1393473784725530E-004
           4
 Particles at time step:          15
           1   9.1001204881414194E-005   9.1001204881414194E-005   9.1001204881414194E-005
           2   9.1001204881414194E-005  0.72289884560689244       0.72289884560689244     
           3  0.72289884560689244        9.1001204881414194E-005  0.72289884560689244     
           4  0.72289884560689244       0.72289884560689244        9.1001204881414194E-005
           4
 Particles at time step:          16
           1  -2.8262365396514860E-004  -2.8262365396514860E-004  -2.8262365396514860E-004
           2  -2.8262365396514860E-004  0.72327247046573895       0.72327247046573895     
           3  0.72327247046573895       -2.8262365396514860E-004  0.72327247046573895     
           4  0.72327247046573895       0.72327247046573895       -2.8262365396514860E-004
           4
 Particles at time step:          17
           1  -3.0164121935787101E-004  -3.0164121935787101E-004  -3.0164121935787101E-004
           2  -3.0164121935787101E-004  0.72329148803113164       0.72329148803113164     
           3  0.72329148803113164       -3.0164121935787101E-004  0.72329148803113164     
           4  0.72329148803113164       0.72329148803113164       -3.0164121935787101E-004
           4
 Particles at time step:          18
           1   3.4339038727594981E-005   3.4339038727594981E-005   3.4339038727594981E-005
           2   3.4339038727594981E-005  0.72295550777304618       0.72295550777304618     
           3  0.72295550777304618        3.4339038727594981E-005  0.72295550777304618     
           4  0.72295550777304618       0.72295550777304618        3.4339038727594981E-005
           4
 Particles at time step:          19
           1   2.0779299753167124E-005   2.0779299753167124E-005   2.0779299753167124E-005
           2   2.0779299753167124E-005  0.72296906751202061       0.72296906751202061     
           3  0.72296906751202061        2.0779299753167124E-005  0.72296906751202061     
           4  0.72296906751202061       0.72296906751202061        2.0779299753167124E-005
           4
 Particles at time step:          20
           1  -3.4204535916421142E-004  -3.4204535916421142E-004  -3.4204535916421142E-004
           2  -3.4204535916421142E-004  0.72333189217093807       0.72333189217093807     
           3  0.72333189217093807       -3.4204535916421142E-004  0.72333189217093807     
           4  0.72333189217093807       0.72333189217093807       -3.4204535916421142E-004
           4
 Particles at time step:          21
           1  -3.4904134943371408E-004  -3.4904134943371408E-004  -3.4904134943371408E-004
           2  -3.4904134943371408E-004  0.72333888816120762       0.72333888816120762     
           3  0.72333888816120762       -3.4904134943371408E-004  0.72333888816120762     
           4  0.72333888816120762       0.72333888816120762       -3.4904134943371408E-004
           4
 Particles at time step:          22
           1  -6.4652740197672582E-008  -6.4652740197672582E-008  -6.4652740197672582E-008
           2  -6.4652740197672582E-008  0.72298991146451408       0.72298991146451408     
           3  0.72298991146451408       -6.4652740197672582E-008  0.72298991146451408     
           4  0.72298991146451408       0.72298991146451408       -6.4652740197672582E-008
           4
 Particles at time step:          23
           1   6.9775707192727254E-004   6.9775707192727254E-004   6.9775707192727254E-004
           2   6.9775707192727254E-004  0.72229208973984660       0.72229208973984660     
           3  0.72229208973984660        6.9775707192727254E-004  0.72229208973984660     
           4  0.72229208973984660       0.72229208973984660        6.9775707192727254E-004
           4
 Particles at time step:          24
           1   1.0323683522084550E-003   1.0323683522084550E-003   1.0323683522084550E-003
           2   1.0323683522084550E-003  0.72195747845956537       0.72195747845956537     
           3  0.72195747845956537        1.0323683522084550E-003  0.72195747845956537     
           4  0.72195747845956537       0.72195747845956537        1.0323683522084550E-003
           4
 Particles at time step:          25
           1   9.9671400043255059E-004   9.9671400043255059E-004   9.9671400043255059E-004
           2   9.9671400043255059E-004  0.72199313281134125       0.72199313281134125     
           3  0.72199313281134125        9.9671400043255059E-004  0.72199313281134125     
           4  0.72199313281134125       0.72199313281134125        9.9671400043255059E-004
           4
 Particles at time step:          26
           1   5.9155096514102714E-004   5.9155096514102714E-004   5.9155096514102714E-004
           2   5.9155096514102714E-004  0.72239829584663273       0.72239829584663273     
           3  0.72239829584663273        5.9155096514102714E-004  0.72239829584663273     
           4  0.72239829584663273       0.72239829584663273        5.9155096514102714E-004
           4
 Particles at time step:          27
           1  -1.7460582882855590E-004  -1.7460582882855590E-004  -1.7460582882855590E-004
           2  -1.7460582882855590E-004  0.72316445264060236       0.72316445264060236     
           3  0.72316445264060236       -1.7460582882855590E-004  0.72316445264060236     
           4  0.72316445264060236       0.72316445264060236       -1.7460582882855590E-004
           4
 Particles at time step:          28
           1  -5.8836701788004143E-004  -5.8836701788004143E-004  -5.8836701788004143E-004
           2  -5.8836701788004143E-004  0.72357821382965382       0.72357821382965382     
           3  0.72357821382965382       -5.8836701788004143E-004  0.72357821382965382     
           4  0.72357821382965382       0.72357821382965382       -5.8836701788004143E-004
           4
 Particles at time step:          29
           1  -6.4120073484302451E-004  -6.4120073484302451E-004  -6.4120073484302451E-004
           2  -6.4120073484302451E-004  0.72363104754661678       0.72363104754661678     
           3  0.72363104754661678       -6.4120073484302451E-004  0.72363104754661678     
           4  0.72363104754661678       0.72363104754661678       -6.4120073484302451E-004
           4
 Particles at time step:          30
           1  -3.3200577563985341E-004  -3.3200577563985341E-004  -3.3200577563985341E-004
           2  -3.3200577563985341E-004  0.72332185258741366       0.72332185258741366     
           3  0.72332185258741366       -3.3200577563985341E-004  0.72332185258741366     
           4  0.72332185258741366       0.72332185258741366       -3.3200577563985341E-004
           4
 Particles at time step:          31
           1   3.3281126009375813E-004   3.3281126009375813E-004   3.3281126009375813E-004
           2   3.3281126009375813E-004  0.72265703555168004       0.72265703555168004     
           3  0.72265703555168004        3.3281126009375813E-004  0.72265703555168004     
           4  0.72265703555168004       0.72265703555168004        3.3281126009375813E-004
           4
 Particles at time step:          32
           1   6.4198964775961649E-004   6.4198964775961649E-004   6.4198964775961649E-004
           2   6.4198964775961649E-004  0.72234785716401417       0.72234785716401417     
           3  0.72234785716401417        6.4198964775961649E-004  0.72234785716401417     
           4  0.72234785716401417       0.72234785716401417        6.4198964775961649E-004
           4
 Particles at time step:          33
           1   5.8912289576295543E-004   5.8912289576295543E-004   5.8912289576295543E-004
           2   5.8912289576295543E-004  0.72240072391601073       0.72240072391601073     
           3  0.72240072391601073        5.8912289576295543E-004  0.72240072391601073     
           4  0.72240072391601073       0.72240072391601073        5.8912289576295543E-004
           4
 Particles at time step:          34
           1   1.7531293593838149E-004   1.7531293593838149E-004   1.7531293593838149E-004
           2   1.7531293593838149E-004  0.72281453387583539       0.72281453387583539     
           3  0.72281453387583539        1.7531293593838149E-004  0.72281453387583539     
           4  0.72281453387583539       0.72281453387583539        1.7531293593838149E-004
           4
 Particles at time step:          35
           1  -5.9090707120031203E-004  -5.9090707120031203E-004  -5.9090707120031203E-004
           2  -5.9090707120031203E-004  0.72358075388297405       0.72358075388297405     
           3  0.72358075388297405       -5.9090707120031203E-004  0.72358075388297405     
           4  0.72358075388297405       0.72358075388297405       -5.9090707120031203E-004
           4
 Particles at time step:          36
           1  -9.9614672567160381E-004  -9.9614672567160381E-004  -9.9614672567160381E-004
           2  -9.9614672567160381E-004  0.72398599353744530       0.72398599353744530     
           3  0.72398599353744530       -9.9614672567160381E-004  0.72398599353744530     
           4  0.72398599353744530       0.72398599353744530       -9.9614672567160381E-004
           4
 Particles at time step:          37
           1  -1.0318897299338799E-003  -1.0318897299338799E-003  -1.0318897299338799E-003
           2  -1.0318897299338799E-003  0.72402173654170754       0.72402173654170754     
           3  0.72402173654170754       -1.0318897299338799E-003  0.72402173654170754     
           4  0.72402173654170754       0.72402173654170754       -1.0318897299338799E-003
           4
 Particles at time step:          38
           1  -6.9737727161205154E-004  -6.9737727161205154E-004  -6.9737727161205154E-004
           2  -6.9737727161205154E-004  0.72368722408338571       0.72368722408338571     
           3  0.72368722408338571       -6.9737727161205154E-004  0.72368722408338571     
           4  0.72368722408338571       0.72368722408338571       -6.9737727161205154E-004
           4
 Particles at time step:          39
           1   3.3768473641423709E-007   3.3768473641423709E-007   3.3768473641423709E-007
           2   3.3768473641423709E-007  0.72298950912703719       0.72298950912703719     
           3  0.72298950912703719        3.3768473641423709E-007  0.72298950912703719     
           4  0.72298950912703719       0.72298950912703719        3.3768473641423709E-007
           4
 Particles at time step:          40
           1   3.4920208127971550E-004   3.4920208127971550E-004   3.4920208127971550E-004
           2   3.4920208127971550E-004  0.72264064473049394       0.72264064473049394     
           3  0.72264064473049394        3.4920208127971550E-004  0.72264064473049394     
           4  0.72264064473049394       0.72264064473049394        3.4920208127971550E-004
           4
 Particles at time step:          41
           1   3.4209048151473528E-004   3.4209048151473528E-004   3.4209048151473528E-004
           2   3.4209048151473528E-004  0.72264775633025891       0.72264775633025891     
           3  0.72264775633025891        3.4209048151473528E-004  0.72264775633025891     
           4  0.72264775633025891       0.72264775633025891        3.4209048151473528E-004
           4
 Particles at time step:          42
           1  -2.0850715630704562E-005  -2.0850715630704562E-005  -2.0850715630704562E-005
           2  -2.0850715630704562E-005  0.72301069752740432       0.72301069752740432     
           3  0.72301069752740432       -2.0850715630704562E-005  0.72301069752740432     
           4  0.72301069752740432       0.72301069752740432       -2.0850715630704562E-005
           4
 Particles at time step:          43
           1  -3.4525544518699430E-005  -3.4525544518699430E-005  -3.4525544518699430E-005
           2  -3.4525544518699430E-005  0.72302437235629236       0.72302437235629236     
           3  0.72302437235629236       -3.4525544518699430E-005  0.72302437235629236     
           4  0.72302437235629236       0.72302437235629236       -3.4525544518699430E-005
           4
 Particles at time step:          44
           1   3.0134340836711945E-004   3.0134340836711945E-004   3.0134340836711945E-004
           2   3.0134340836711945E-004  0.72268850340340651       0.72268850340340651     
           3  0.72268850340340651        3.0134340836711945E-004  0.72268850340340651     
           4  0.72268850340340651       0.72268850340340651        3.0134340836711945E-004
           4
 Particles at time step:          45
           1   2.8222065602958636E-004   2.8222065602958636E-004   2.8222065602958636E-004
           2   2.8222065602958636E-004  0.72270762615574413       0.72270762615574413     
           3  0.72270762615574413        2.8222065602958636E-004  0.72270762615574413     
           4  0.72270762615574413       0.72270762615574413        2.8222065602958636E-004
           4
 Particles at time step:          46
           1  -9.1501117810686652E-005  -9.1501117810686652E-005  -9.1501117810686652E-005
           2  -9.1501117810686652E-005  0.72308134792958445       0.72308134792958445     
           3  0.72308134792958445       -9.1501117810686652E-005  0.72308134792958445     
           4  0.72308134792958445       0.72308134792958445       -9.1501117810686652E-005
           4
 Particles at time step:          47
           1  -1.1452139455951166E-004  -1.1452139455951166E-004  -1.1452139455951166E-004
           2  -1.1452139455951166E-004  0.72310436820633328       0.72310436820633328     
           3  0.72310436820633328       -1.1452139455951166E-004  0.72310436820633328     
           4  0.72310436820633328       0.72310436820633328       -1.1452139455951166E-004
           4
 Particles at time step:          48
           1   2.1362844951537617E-004   2.1362844951537617E-004   2.1362844951537617E-004
           2   2.1362844951537617E-004  0.72277621836225847       0.72277621836225847     
           3  0.72277621836225847        2.1362844951537617E-004  0.72277621836225847     
           4  0.72277621836225847       0.72277621836225847        2.1362844951537617E-004
           4
 Particles at time step:          49
           1   1.8858496214268255E-004   1.8858496214268255E-004   1.8858496214268255E-004
           2   1.8858496214268255E-004  0.72280126184963112       0.72280126184963112     
           3  0.72280126184963112        1.8858496214268255E-004  0.72280126184963112     
           4  0.72280126184963112       0.72280126184963112        1.8858496214268255E-004
           4
 Particles at time step:          50
           1  -1.8913973602532582E-004  -1.8913973602532582E-004  -1.8913973602532582E-004
           2  -1.8913973602532582E-004  0.72317898654779911       0.72317898654779911     
           3  0.72317898654779911       -1.8913973602532582E-004  0.72317898654779911     
           4  0.72317898654779911       0.72317898654779911       -1.8913973602532582E-004
           4
 Particles at time step:          51
           1  -2.1417188508706262E-004  -2.1417188508706262E-004  -2.1417188508706262E-004
           2  -2.1417188508706262E-004  0.72320401869686091       0.72320401869686091     
           3  0.72320401869686091       -2.1417188508706262E-004  0.72320401869686091     
           4  0.72320401869686091       0.72320401869686091       -2.1417188508706262E-004
           4
 Particles at time step:          52
           1   1.1400041670553640E-004   1.1400041670553640E-004   1.1400041670553640E-004
           2   1.1400041670553640E-004  0.72287584639506830       0.72287584639506830     
           3  0.72287584639506830        1.1400041670553640E-004  0.72287584639506830     
           4  0.72287584639506830       0.72287584639506830        1.1400041670553640E-004
           4
 Particles at time step:          53
           1   9.1013208720352556E-005   9.1013208720352556E-005   9.1013208720352556E-005
           2   9.1013208720352556E-005  0.72289883360305351       0.72289883360305351     
           3  0.72289883360305351        9.1013208720352556E-005  0.72289883360305351     
           4  0.72289883360305351       0.72289883360305351        9.1013208720352556E-005
           4
 Particles at time step:          54
           1  -2.8266556937248913E-004  -2.8266556937248913E-004  -2.8266556937248913E-004
           2  -2.8266556937248913E-004  0.72327251238114643       0.72327251238114643     
           3  0.72327251238114643       -2.8266556937248913E-004  0.72327251238114643     
           4  0.72327251238114643       0.72327251238114643       -2.8266556937248913E-004
           4
 Particles at time step:          55
           1  -3.0173619364540661E-004  -3.0173619364540661E-004  -3.0173619364540661E-004
           2  -3.0173619364540661E-004  0.72329158300541929       0.72329158300541929     
           3  0.72329158300541929       -3.0173619364540661E-004  0.72329158300541929     
           4  0.72329158300541929       0.72329158300541929       -3.0173619364540661E-004
           4
 Particles at time step:          56
           1   3.4192956737530943E-005   3.4192956737530943E-005   3.4192956737530943E-005
           2   3.4192956737530943E-005  0.72295565385503635       0.72295565385503635     
           3  0.72295565385503635        3.4192956737530943E-005  0.72295565385503635     
           4  0.72295565385503635       0.72295565385503635        3.4192956737530943E-005
           4
 Particles at time step:          57
           1   2.0585074442001168E-005   2.0585074442001168E-005   2.0585074442001168E-005
           2   2.0585074442001168E-005  0.72296926173733189       0.72296926173733189     
           3  0.72296926173733189        2.0585074442001168E-005  0.72296926173733189     
           4  0.72296926173733189       0.72296926173733189        2.0585074442001168E-005
           4
 Particles at time step:          58
           1  -3.4228378892993140E-004  -3.4228378892993140E-004  -3.4228378892993140E-004
           2  -3.4228378892993140E-004  0.72333213060070389       0.72333213060070389     
           3  0.72333213060070389       -3.4228378892993140E-004  0.72333213060070389     
           4  0.72333213060070389       0.72333213060070389       -3.4228378892993140E-004
           4
 Particles at time step:          59
           1  -3.4931907614194280E-004  -3.4931907614194280E-004  -3.4931907614194280E-004
           2  -3.4931907614194280E-004  0.72333916588791591       0.72333916588791591     
           3  0.72333916588791591       -3.4931907614194280E-004  0.72333916588791591     
           4  0.72333916588791591       0.72333916588791591       -3.4931907614194280E-004
           4
 Particles at time step:          60
           1  -3.7595819589626711E-007  -3.7595819589626711E-007  -3.7595819589626711E-007
           2  -3.7595819589626711E-007  0.72299022276996983       0.72299022276996983     
           3  0.72299022276996983       -3.7595819589626711E-007  0.72299022276996983     
           4  0.72299022276996983       0.72299022276996983       -3.7595819589626711E-007
           4
 Particles at time step:          61
           1   6.9741849500962248E-004   6.9741849500962248E-004   6.9741849500962248E-004
           2   6.9741849500962248E-004  0.72229242831676432       0.72229242831676432     
           3  0.72229242831676432        6.9741849500962248E-004  0.72229242831676432     
           4  0.72229242831676432       0.72229242831676432        6.9741849500962248E-004
           4
 Particles at time step:          62
           1   1.0320095877000474E-003   1.0320095877000474E-003   1.0320095877000474E-003
           2   1.0320095877000474E-003  0.72195783722407381       0.72195783722407381     
           3  0.72195783722407381        1.0320095877000474E-003  0.72195783722407381     
           4  0.72195783722407381       0.72195783722407381        1.0320095877000474E-003
           4
 Particles at time step:          63
           1   9.9634267116299313E-004   9.9634267116299313E-004   9.9634267116299313E-004
           2   9.9634267116299313E-004  0.72199350414061092       0.72199350414061092     
           3  0.72199350414061092        9.9634267116299313E-004  0.72199350414061092     
           4  0.72199350414061092       0.72199350414061092        9.9634267116299313E-004
           4
 Particles at time step:          64
           1   5.9117494796192974E-004   5.9117494796192974E-004   5.9117494796192974E-004
           2   5.9117494796192974E-004  0.72239867186381201       0.72239867186381201     
           3  0.72239867186381201        5.9117494796192974E-004  0.72239867186381201     
           4  0.72239867186381201       0.72239867186381201        5.9117494796192974E-004
           4
 Particles at time step:          65
           1  -1.7497870511014641E-004  -1.7497870511014641E-004  -1.7497870511014641E-004
           2  -1.7497870511014641E-004  0.72316482551688410       0.72316482551688410     
           3  0.72316482551688410       -1.7497870511014641E-004  0.72316482551688410     
           4  0.72316482551688410       0.72316482551688410       -1.7497870511014641E-004
           4
 Particles at time step:          66
           1  -5.8872913746537184E-004  -5.8872913746537184E-004  -5.8872913746537184E-004
           2  -5.8872913746537184E-004  0.72357857594923924       0.72357857594923924     
           3  0.72357857594923924       -5.8872913746537184E-004  0.72357857594923924     
           4  0.72357857594923924       0.72357857594923924       -5.8872913746537184E-004
           4
 Particles at time step:          67
           1  -6.4154455925548228E-004  -6.4154455925548228E-004  -6.4154455925548228E-004
           2  -6.4154455925548228E-004  0.72363139137102939       0.72363139137102939     
           3  0.72363139137102939       -6.4154455925548228E-004  0.72363139137102939     
           4  0.72363139137102939       0.72363139137102939       -6.4154455925548228E-004
           4
 Particles at time step:          68
           1  -3.3232412982397915E-004  -3.3232412982397915E-004  -3.3232412982397915E-004
           2  -3.3232412982397915E-004  0.72332217094159790       0.72332217094159790     
           3  0.72332217094159790       -3.3232412982397915E-004  0.72332217094159790     
           4  0.72332217094159790       0.72332217094159790       -3.3232412982397915E-004
           4
 Particles at time step:          69
           1   3.3252492568587729E-004   3.3252492568587729E-004   3.3252492568587729E-004
           2   3.3252492568587729E-004  0.72265732188608800       0.72265732188608800     
           3  0.72265732188608800        3.3252492568587729E-004  0.72265732188608800     
           4  0.72265732188608800       0.72265732188608800        3.3252492568587729E-004
           4
 Particles at time step:          70
           1   6.4174122406487660E-004   6.4174122406487660E-004   6.4174122406487660E-004
           2   6.4174122406487660E-004  0.72234810558770901       0.72234810558770901     
           3  0.72234810558770901        6.4174122406487660E-004  0.72234810558770901     
           4  0.72234810558770901       0.72234810558770901        6.4174122406487660E-004
           4
 Particles at time step:          71
           1   5.8891756709692855E-004   5.8891756709692855E-004   5.8891756709692855E-004
           2   5.8891756709692855E-004  0.72240092924467703       0.72240092924467703     
           3  0.72240092924467703        5.8891756709692855E-004  0.72240092924467703     
           4  0.72240092924467703       0.72240092924467703        5.8891756709692855E-004
           4
 Particles at time step:          72
           1   1.7515497685313030E-004   1.7515497685313030E-004   1.7515497685313030E-004