          32
 Particles at time step:           1
           1   0.0000000000000000        0.0000000000000000        0.0000000000000000     
           2   0.0000000000000000       0.72298984681177370       0.72298984681177370     
           3  0.72298984681177370        0.0000000000000000       0.72298984681177370     
           4  0.72298984681177370       0.72298984681177370        0.0000000000000000     
           5   0.0000000000000000        0.0000000000000000        1.4459796936235474     
           6   0.0000000000000000       0.72298984681177370        2.1689695404353211     
           7  0.72298984681177370        0.0000000000000000        2.1689695404353211     
           8  0.72298984681177370       0.72298984681177370        1.4459796936235474     
           9   0.0000000000000000        1.4459796936235474        0.0000000000000000     
          10   0.0000000000000000        2.1689695404353211       0.72298984681177370     
          11  0.72298984681177370        1.4459796936235474       0.72298984681177370     
          12  0.72298984681177370        2.1689695404353211        0.0000000000000000     
          13   0.0000000000000000        1.4459796936235474        1.4459796936235474     
          14   0.0000000000000000        2.1689695404353211        2.1689695404353211     
          15  0.72298984681177370        1.4459796936235474        2.1689695404353211     
          16  0.72298984681177370        2.1689695404353211        1.4459796936235474     
          17   1.4459796936235474        0.0000000000000000        0.0000000000000000     
          18   1.4459796936235474       0.72298984681177370       0.72298984681177370     
          19   2.1689695404353211        0.0000000000000000       0.72298984681177370     
          20   2.1689695404353211       0.72298984681177370        0.0000000000000000     
          21   1.4459796936235474        0.0000000000000000        1.4459796936235474     
          22   1.4459796936235474       0.72298984681177370        2.1689695404353211     
          23   2.1689695404353211        0.0000000000000000        2.1689695404353211     
          24   2.1689695404353211       0.72298984681177370        1.4459796936235474     
          25   1.4459796936235474        1.4459796936235474        0.0000000000000000     
          26   1.4459796936235474        2.1689695404353211       0.72298984681177370     
          27   2.1689695404353211        1.4459796936235474       0.72298984681177370     
          28   2.1689695404353211        2.1689695404353211        0.0000000000000000     
          29   1.4459796936235474        1.4459796936235474        1.4459796936235474     
          30   1.4459796936235474        2.1689695404353211        2.1689695404353211     
          31   2.1689695404353211        1.4459796936235474        2.1689695404353211     
          32   2.1689695404353211        2.1689695404353211        1.4459796936235474     
          32
 Particles at time step:           1
           1   6.2248364970369239E-004   5.0703197000630446E-004   6.3573590450932953E-004
           2  -7.8825048912844716E-004  0.72275121348800841       0.72153577492266729     
           3  0.72300316492876016       -6.5134974001894972E-004  0.72250785479292512     
           4  0.72348527332072399       0.72287063186893052        1.8406793406583569E-004
           5  -1.0761039094630285E-003   4.9746034757658646E-004   1.4464304942905339     
           6   4.0580061902661322E-004  0.72252150380737079        2.1678446475380424     
           7  0.72337951441882409        2.2618335169474253E-004   2.1692300255462640     
           8  0.72361084363281580       0.72328746910736652        1.4465735777931019     
           9   5.5557132016159920E-004   1.4461703852593046       -8.6706333207713896E-004
          10   5.7891950792232064E-004   2.1694768389819745       0.72203159824291752     
          11  0.72291779358456487        1.4457163116749481       0.72359204623120676     
          12  0.72360041036420708        2.1690281018373030       -5.4328552976337131E-004
          13  -1.1479734652405732E-004   1.4459832857762487        1.4464540993258010     
          14  -9.6436967809697773E-004   2.1690393030778599        2.1692398672475712     
          15  0.72301026305162919        1.4453642617762101        2.1684024750840094     
          16  0.72260806015593693        2.1694763731279028        1.4466154310872781     
          17   1.4465338152776226        1.0811686795397401E-004   6.3566368519859422E-004
          18   1.4465976775287928       0.72341438182824802       0.72325508074888079     
          19   2.1674851029207036        2.8280347598449957E-004  0.72318540155005084     
          20   2.1686765582189973       0.72312889976274286        6.0586196049922222E-004
          21   1.4463837827475621       -9.8528119443406489E-005   1.4466072853497065     
          22   1.4447779764788422       0.72262255258612740        2.1690173913514146     
          23   2.1690161890390569        5.0260779355543173E-004   2.1695819265398071     
          24   2.1695365704190555       0.72312661330065575        1.4454030505631019     
          25   1.4447533997775139        1.4460916144882294       -7.8902224782914990E-004
          26   1.4466044794469990        2.1689314979653505       0.72350611951104282     
          27   2.1686363588776296        1.4454434907863636       0.72266287073704216     
          28   2.1695899696580736        2.1694591323222672       -1.4340481302323464E-003
          29   1.4452904230056336        1.4464541958138046        1.4460408983556559     
          30   1.4462494904043315        2.1674880870438531        2.1695058080899252     
          31   2.1694038378385425        1.4461333227537763        2.1692651196329460     
          32   2.1691424381947164        2.1681588525829811        1.4465958921888746     
          32
 Particles at time step:           2
           1   1.2716051325266701E-003   1.0583062615937906E-003   1.2932395319048052E-003
           2  -1.5897886840087682E-003  0.72248104708392202       0.72006133282507823     
           3  0.72303512901811340       -1.3342291614796117E-003  0.72201293169294734     
           4  0.72401382669086367       0.72271672255691877        3.3647339915482443E-004
           5  -2.1714139526828975E-003   1.0328709208199391E-003   1.4468521002756356     
           6   8.3740685812935410E-004  0.72202535090505160        2.1667436197373737     
           7  0.72378622682475435        4.7624605332449922E-004   2.1695127491225819     
           8  0.72426414118987115       0.72355950498310473        1.4471621929604395     
           9   1.1358869423776998E-003   1.4463213395258006       -1.7717152107864704E-003
          10   1.1388632193963545E-003   2.1700221380475790       0.72104512289951694     
          11  0.72285275164058649        1.4454566147890708       0.72423373054856000     
          12  0.72420713118851343        2.1691140505777824       -1.1300105003613729E-003
          13  -2.1485426286818065E-004   1.4459541249166203        1.4469426181952953     
          14  -1.9365494829196824E-003   2.1691325469013618        2.1695397176941347     
          15  0.72298658540810967        1.4447172375360524        2.1678153492157684     
          16  0.72218747107220460        2.1700316943278546        1.4472942518107783     
          17   1.4470674002039043        1.9543517834967971E-004   1.2971673050017880E-003
          18   1.4472333127851653       0.72385837095760497       0.72354451121278396     
          19   2.1659795371944002        5.8689894404086369E-004  0.72335502340320923     
          20   2.1683383163770054       0.72326390680991870        1.2209523772608699E-003
          21   1.4468049339799149       -2.1670546714154033E-004   1.4472317993221435     
          22   1.4435613403018075       0.72227176728144538        2.1690417771514738     
          23   2.1690258922378067        1.0545760509085586E-003   2.1702357404564490     
          24   2.1700882827688455       0.72330045922993924        1.4448190058521635     
          25   1.4435005189891374        1.4462125144303783       -1.6081107048366407E-003
          26   1.4472695291225448        2.1688575490778814       0.72400438755961427     
          27   2.1682750483996767        1.4448859389582678       0.72229728587806219     
          28   2.1702467917410218        2.1699873974147845       -2.8827466068041346E-003
          29   1.4445947164444224        1.4469525533434744        1.4461264185658118     
          30   1.4465351302720058        2.1659879059438056        2.1700689021536395     
          31   2.1698417953982405        1.4462363361024821        2.1695912779820645     
          32   2.1693456819462700        2.1673121764836187        1.4472255508590797     
          32
 Particles at time step:           3
           1   1.9361942473359720E-003   1.6494105625184283E-003   1.9561157415378420E-003
           2  -2.3838217542955895E-003  0.72218539460194520       0.71859430382172429     
           3  0.72309308423531038       -2.0319315003547371E-003  0.72152613143126609     
           4  0.72456759879549715       0.72253075836049241        4.6058509996407517E-004
           5  -3.2687876470139854E-003   1.5953818982560645E-003   1.4472275325300659     
           6   1.2870321946461332E-003  0.72150746761064810        2.1656924379371207     
           7  0.72420377031247096        7.3631059151511868E-004   2.1698163048999013     
           8  0.72493307972670717       0.72378916710148522        1.4477170727248512     
           9   1.7390413379574461E-003   1.4464263371502208       -2.7024386769351526E-003
          10   1.6621866230251820E-003   2.1705942643517555       0.72004690008480154     
          11  0.72278970877880888        1.4452070377249409       0.72490625945313625     
          12  0.72480320210416149        2.1692245895522100       -1.7555551894293901E-003
          13  -2.9731510968068823E-004   1.4458937016905749        1.4474260111816459     
          14  -2.8904768441695488E-003   2.1692578079154301        2.1698639732961484     
          15  0.72290838307494398        1.4440522631168069        2.1672148508125835     
          16  0.72172703867969867        2.1706353776324265        1.4480107059730558     
          17   1.4475716642731815        2.5664993386850674E-004   1.9726471902337156E-003
          18   1.4478660482262207       0.72431813507363008       0.72385964465624786     
          19   2.1644801027718170        8.9606490908483727E-004  0.72349939487522541     
          20   2.1679569753986625       0.72339957886420858        1.8211528918252063E-003
          21   1.4472380139560019       -3.5853482506277378E-004   1.4478511467832713     
          22   1.4423631533451970       0.72194557553746219        2.1690420777909605     
          23   2.1689918656485969        1.6569167527243245E-003   2.1709235259295472     
          24   2.1706078329635332       0.72351773279462994        1.4442432499574256     
          25   1.4422424744033024        1.4463392507978612       -2.4386755493803871E-003
          26   1.4479662962047508        2.1687416451474015       0.72447520065890592     
          27   2.1678956759167449        1.4443307051622112       0.72188875519257389     
          28   2.1709294251679432        2.1705444517073831       -4.3123500186211762E-003
          29   1.4439090775767720        1.4474657803293167        1.4462379679200892     
          30   1.4468327988399163        2.1644986279481717        2.1706475056781787     
          31   2.1702715708388527        1.4462646473264014        2.1699446257260351     
          32   2.1695797526782394        2.1664420811449716        1.4478555861611826     
          32
 Particles at time step:           4
           1   2.6048003118634231E-003   2.2753134988788611E-003   2.6075840840831328E-003
           2  -3.1499581521065210E-003  0.72187114723281920       0.71716199856597007     
           3  0.72318801458755644       -2.7281250526281025E-003  0.72106804232614452     
           4  0.72513884355183988       0.72231602397927019        5.6080813536588266E-004
           5  -4.3517631009007199E-003   2.1737057114838256E-003   1.4475409125371406     
           6   1.7466598794409595E-003  0.72097389734514761        2.1647158220561460     
           7  0.72462587935585543        9.9264662104369241E-004   2.1701386696822071     
           8  0.72560188794378733       0.72396016354216264        1.4482105989598311     
           9   2.3629750767048359E-003   1.4464798065878668       -3.6468468226656622E-003
          10   2.1322832582378764E-003   2.1711812453791657       0.71905319268030921     
          11  0.72272344979068914        1.4449741028114085       0.72560036287203034     
          12  0.72538155009492411        2.1693563848998050       -2.4151655833247010E-003
          13  -3.5972185296754026E-004   1.4458038874955392        1.4478853584210589     
          14  -3.8008351053292247E-003   2.1694234546644386        2.1702067476433262     
          15  0.72276626488958173        1.4433832964496229        2.1666076387044835     
          16  0.72122634030225152        2.1712865378797108        1.4487588000025418     
          17   1.4480381076347668        2.8699122666184826E-004   2.6501529786377661E-003
          18   1.4484751271744600       0.72478990706165680       0.72420149909472842     
          19   2.1630138484849795        1.1945363270824492E-003  0.72361984408922331     
          20   2.1675347885881071       0.72354034933518740        2.3829961505438813E-003
          21   1.4476781551048732       -5.2808008874757222E-004   1.4484632667420474     
          22   1.4412159527498143       0.72165155636888700        2.1690181460251114     
          23   2.1689046886050853        2.3100783017717987E-003   2.1716370297248266     
          24   2.1710792693452281       0.72378403155307436        1.4436916876866006     
          25   1.4410001645220800        1.4464682233227333       -3.2619390537109846E-003
          26   1.4486854792980677        2.1685782699142790       0.72490983165843170     
          27   2.1675089684034510        1.4438011767093477       0.72143362026842772     
          28   2.1716264424416813        2.1711200694371025       -5.6896883270735636E-003
          29   1.4432494075827638        1.4479853399957749        1.4463769349020070     
          30   1.4471387322761973        2.1630494918177887        2.1712297094067163     
          31   2.1706820687672526        1.4461958547914491        2.1703216233741731     
          32   2.1698447751549002        2.1655613618453500        1.4484734079798010     
          32
 Particles at time step:           5
           1   3.2659167962527194E-003   2.9303689572235930E-003   3.2309792923683996E-003
           2  -3.8688638750999757E-003  0.72154586956408118       0.71579070850484217     
           3  0.72332709196324851       -3.4073819051720512E-003  0.72065815291484714     
           4  0.72572373391490230       0.72207635421525085        6.4233690381360715E-004
           5  -5.4049497501062757E-003   2.7564643435567990E-003   1.4477779218042623     
           6   2.2083216944558926E-003  0.72043049904124601        2.1638365426339665     
           7  0.72504640385895025        1.2322524670094674E-003   2.1704771927189608     
           8  0.72625529322975813       0.72405716782554319        1.4486169635172306     
           9   3.0053779046109010E-003   1.4464770177217576       -4.5918987869870342E-003
          10   2.5341293507731176E-003   2.1717706755173372       0.71807966664311629     
          11  0.72264877708740749        1.4447644141890899       0.72630631633979792     
          12  0.72593489497757691        2.1695056735235858       -3.1024138105225862E-003
          13  -4.0012478121496161E-004   1.4456868454480249        1.4483026307865068     
          14  -4.6438966627637378E-003   2.1696373248284107        2.1705615232889977     
          15  0.72255231563684574        1.4427241934981714        2.1660001434163059     
          16  0.72068572582934853        2.1719833528395336        1.4495319440600907     
          17   1.4484586643265185        2.9310061909485304E-004   3.3179489740632899E-003
          18   1.4490403067590014       0.72526982626950909       0.72457047889362036     
          19   2.1616070533492167        1.4676290988958585E-003  0.72371822840261224     
          20   2.1670741383051952       0.72369014268185750        2.8845819988452905E-003
          21   1.4481208657349971       -7.2932081738044663E-004   1.4490660346167461     
          22   1.4401503864423431       0.72139665951759668        2.1689702429975992     
          23   2.1687597695987368        3.0136707206852497E-003   2.1723672643570793     
          24   2.1714844050467113       0.72410395235855918        1.4431784921874469     
          25   1.4397935017927659        1.4465954775275318       -4.0593752643274207E-003
          26   1.4494170631618368        2.1683626373602443       0.72530048966114291     
          27   2.1671260789858837        1.4433196973796301       0.72092906388440126     
          28   2.1723265174569106        2.1717038342034565       -6.9830877718659182E-003
          29   1.4426305388522780        1.4485033290580207        1.4465443329496399     
          30   1.4474493974341363        2.1616686457050012        2.1718032832871432     
          31   2.1710633066517468        1.4459995191985728        2.1707186143499868     
          32   2.1701405058919123        2.1646827540092088        1.4490673432134089     
          32
 Particles at time step:           6
           1   3.9082255766908049E-003   3.6083562356852535E-003   3.8102775494926501E-003
           2  -4.5228724890348775E-003  0.72121760850835837       0.71450518544533292     
           3  0.72351693651005933       -4.0556582989428056E-003  0.72031426623284889     
           4  0.72631533287661576       0.72181605346792843        7.1088399535224739E-004
           5  -6.4143856932401414E-003   3.3325674052612185E-003   1.4479262165030069     
           6   2.6643953223535145E-003  0.71988278957196328        2.1630747786199431     
           7  0.72545948151854511        1.4434044998970215E-003   2.1708286035735016     
           8  0.72687881934057730       0.72406626749267544        1.4489130713002720     
           9   3.6635994212045843E-003   1.4464142507524231       -5.5241424811743956E-003
          10   2.8547583851807486E-003   2.1723500927685850       0.71714104887335517     
          11  0.72256072964107843        1.4445846385637851       0.72701413490509281     
          12  0.72645585964724968        2.1696683940062043       -3.8098424882547408E-003
          13  -4.1719039272619272E-004   1.4455449284182686        1.4486612188898613     
          14  -5.3983537828795856E-003   2.1699063282813702        2.1709213366365132     
          15  0.72226049976675322        1.4420882905347825        2.1653983738771427     
          16  0.72010644664284018        2.1727229109488793        1.4503229156349744     
          17   1.4488258699335890        2.7152537538097869E-004   3.9648137918560818E-003
          18   1.4495425713262320       0.72575394720557473       0.72496629393535672     
          19   2.1602846667477427        1.7023075473084129E-003  0.72379679854720236     
          20   2.1665776195019020       0.72385216802671615        3.3064836902811558E-003
          21   1.4485621176209686       -9.6601498363429973E-004   1.4496571731839389     
          22   1.4391941872541838       0.72118709516471413        2.1688989124322613     
          23   2.1685540348452252        3.7661991442815013E-003   2.1731045991500864     
          24   2.1718103773289048       0.72448084573584115        1.4427163256261808     
          25   1.4386409952516936        1.4467168654282914       -4.8131650328583266E-003
          26   1.4501503891709393        2.1680909116975760       0.72564047222372163     
          27   2.1667583412321143        1.4429068410905979       0.72037323839332967     
          28   2.1730186240524452        2.1722852787832951       -8.1632986948192831E-003
          29   1.4420657971137709        1.4490126360546511        1.4467407631719176     
          30   1.4477616973878418        2.1603824795284066        2.1723560132052904     
          31   2.1714067379163096        1.4456597158682296        2.1711318525777656     
          32   2.1704663379900055        2.1638186221407785        1.4496270436963679     
          32
 Particles at time step:           7
           1   4.5208362161075332E-003   4.3025367567065109E-003   4.3306323028178230E-003
           2  -5.0965226319006612E-003  0.72089467672133689       0.71332815352587808     
           3  0.72376331141827432       -4.6607099866524931E-003  0.72005197229481566     
           4  0.72690730299542405       0.72153978238382488        7.6160396786128983E-004
           5  -7.3678327453985679E-003   3.8915812639895718E-003   1.4479757869367860     
           6   3.1078486395487623E-003  0.71933582484924374        2.1624475449237699     
           7  0.72586325923173589        1.6161598537645764E-003   2.1711890377522951     
           8  0.72745905409028944       0.72397538249816207        1.4490793582297690     
           9   4.3451932354362909E-003   1.4462889460196307       -6.4299750983320943E-003
          10   3.0836646790673907E-003   2.1729073616124208       0.71625082969344933     
          11  0.72245479406509294        1.4444414689680309       0.72771377844456941     
          12  0.72693707357501169        2.1698402845253066       -4.5289422544823738E-003
          13  -4.1028371726521614E-004   1.4453805829200745        1.4489464050431027     
          14  -6.0460552268018367E-003   2.1702468643755042        2.1712782785596434     
          15  0.72188701561425250        1.4414880023127756        2.1648077372410239     
          16  0.71949075272610019        2.1735010927250422        1.4511238452357431     
          17   1.4491330264463949        2.1954810962166075E-004   4.5803268142581921E-003
          18   1.4499541879052797       0.72623822689474227       0.72538859640943076     
          19   2.1590697586742671        1.8876811413509919E-003  0.72385805014412563     
          20   2.1660481081330483       0.72401797560998027        3.6325530805679635E-003
          21   1.4489984260531157       -1.2415553148873797E-003   1.4502341696052190     
          22   1.4383712500794115       0.72102823918858605        2.1688048656520116     
          23   2.1682861199339558        4.5648220594610199E-003   2.1738388825083943     
          24   2.1720464160240880       0.72491663098283254        1.4423159334178863     
          25   1.4375593696670990        1.4468282327159683       -5.5066546215490871E-003
          26   1.4508742639507950        2.1677603830397780       0.72592431138438995     
          27   2.1664170139091543        1.4425807430259787       0.71976536420941128     
          28   2.1736922555431830        2.1728540217977184       -9.2043422127869035E-003
          29   1.4415666212213516        1.4495070492908986        1.4469771761515748     
          30   1.4480731224461050        2.1592150015446467        2.1728760392345161     
          31   2.1717019758429910        1.4451651202188223        2.1715575266802749     
          32   2.1708213189699213        2.1629806888604732        1.4501438017087049     
          32
 Particles at time step:           8
           1   5.0935571241255001E-003   5.0057357764429723E-003   4.7789183130203493E-003
           2  -5.5769776784721382E-003  0.72058541976623247       0.71227983302621267     
           3  0.72407079838639077       -5.2124308425960065E-003  0.71988416271455347     
           4  0.72749402702769750       0.72125241188643008        8.0055381930985365E-004
           5  -8.2550019558743429E-003   4.4241060611386199E-003   1.4479192317144092     
           6   3.5324224821830330E-003  0.71879409832192331        2.1619717905020552     
           7  0.72625292573909617        1.7427802365202623E-003   2.1715540547000600     
           8  0.72798385242270280       0.72376409272410958        1.4491005309530514     
           9   5.0463239995732689E-003   1.4460998330977475       -7.2959582852668752E-003
          10   3.2021055002249364E-003   2.1734310505413519       0.71541740934174303     
          11  0.72232784841853426        1.4443415674186089       0.72839539109359186     
          12  0.72737131975763814        2.1700169969366994       -5.2501838747845446E-003
          13  -3.7953789080433361E-004   1.4451962804763212        1.4491458032553131     
          14  -6.5726434617390302E-003   2.1706733453925637        2.1716252113275374     
          15  0.72143055218969576        1.4409345042159283        2.1642328539647324     
          16  0.71884195503819059        2.1743124900566855        1.4519262243395028     
          17   1.4493853690724783        1.3524107627211165E-004   5.1551462075265977E-003
          18   1.4502608081473198       0.72671854832825111       0.72583545545858807     
          19   2.1579829669636719        2.0154137221388459E-003  0.72390459792444195     
          20   2.1654888316980512       0.72418906081460477        3.8506585557224514E-003
          21   1.4494269230558501       -1.5588329529598777E-003   1.4507941949515528     
          22   1.4377008512080565       0.72092452954248076        2.1686888545964735     
          23   2.1679557545583754        5.4051473956079985E-003   2.1745595644026872     
          24   2.1721840752492794       0.72541165141256170        1.4419857738380562     
          25   1.4365632597728804        1.4469256077819572       -6.1247910266193153E-003
          26   1.4515771051652804        2.1673695896659830       0.72614791314077143     
          27   2.1661129876154988        1.4423564459688434       0.71910576892427835     
          28   2.1743376585019947        2.1733998759578586       -1.0084277800605380E-002
          29   1.4411422419148887        1.4499813266315635        1.4472530676042095     
          30   1.4483818628174920        2.1581873086387886        2.1733522414978896     
          31   2.1719442487428244        1.4445096665722077        2.1719918664573017     
          32   2.1712041753820315        2.1621797843428658        1.4506107853278252     
          32
 Particles at time step:           9
           1   5.6171158574013285E-003   5.7104762119766887E-003   5.1406979908362052E-003
           2  -5.9543671514782487E-003  0.72029797121432471       0.71137753547776816     
           3  0.72444251550956729       -5.7031697243043180E-003  0.71982059600969139     
           4  0.72807073148365364       0.72095887161845607        8.3364617561060056E-004
           5  -9.0677441290315242E-003   4.9220904233851035E-003   1.4477519589816077     
           6   3.9433840657437692E-003  0.71826146337052610        2.1616567582506021     
           7  0.72663504756688113        1.8180684662548084E-003   2.1719187559999091     
           8  0.72844252964006451       0.72342167783565903        1.4489661468609480     
           9   5.7623690973221935E-003   1.4458435006326200       -8.1091244783623884E-003
          10   3.1949160943399949E-003   2.1739107863740252       0.71465117683428103     
          11  0.72217685763391137        1.4442914842074954       0.72904953908172143     
          12  0.72775168501789056        2.1701978146758267       -5.9630878236574527E-003
          13  -3.2585955675787387E-004   1.4449944303552766        1.4492497101915367     
          14  -6.9680621285663534E-003   2.1711873992021129        2.1719553175767650     
          15  0.72089246744694013        1.4404374051035034        2.1636774008672504     
          16  0.71816441571480472        2.1751503714176033        1.4527209121303770     
          17   1.4495674311527833        2.1068261345388502E-005   5.6812363855427445E-003
          18   1.4504513767874236       0.72719072843568378       0.72630405123800124     
          19   2.1570420247862372        2.0800440358210784E-003  0.72393905632451938     
          20   2.1649034578095838       0.72436601819727942        3.9532592152879730E-003
          21   1.4498560378255525       -1.9201371541762841E-003   1.4513375860206981     
          22   1.4371969700575460       0.72087940152218200        2.1685515560355939     
          23   2.1675652856542276        6.2811065359238321E-003   2.1752558439241971     
          24   2.1722068338175227       0.72596457304986839        1.4417317641753118     
          25   1.4356649478760808        1.4470054305734874       -6.6545459165256032E-003
          26   1.4522471239945784        2.1669184461305977       0.72630863398195167     
          27   2.1658565026968213        1.4422453800358428       0.71839593910642618     
          28   2.1749460084795746        2.1739129617933317       -1.0785895254821220E-002
          29   1.4407994139298101        1.4504312068490672        1.4475672464808436     
          30   1.4486868743358736        2.1573170966227151        2.1737745999479405     
          31   2.1721310290176028        1.4436930542623465        2.1724311639180862     
          32   2.1716133265812299        2.1614256264290748        1.4510232112552031     
          32
 Particles at time step:          10
           1   6.0833743711023198E-003   6.4091166280164039E-003   5.4077876777989149E-003
           2  -6.2220383809682995E-003  0.72003998056557994       0.71063534146389562     
           3  0.72487983794669331       -6.1279370270106446E-003  0.71986766091855781     